 Q-Chem 6.1, Q-Chem, Inc., Pleasanton, CA (2022)
 Q-Chem 6.1.0 for Intel X86 EM64T Linux

User input:
--------------------------------------------------------------
$molecule
0 1
C 0.0 0.0 0.0
O 0.0 0.0 1.128
$end

$rem
METHOD                 adc(3)
BASIS                  6-311G
IP_STATES              [5,5,5,5]
POINT_GROUP_SYMMETRY   true
N_FROZEN_CORE          0
N_FROZEN_VIRTUAL       0
ADC_DENSITY_ORDER      4
$end
--------------------------------------------------------------

             Standard Nuclear Orientation (Angstroms)
    I     Atom           X                Y                Z
 ----------------------------------------------------------------
    1      C       0.0000000000     0.0000000000    -0.6445714286
    2      O       0.0000000000     0.0000000000     0.4834285714
 ----------------------------------------------------------------

   11    -112.6994477189      1.98E-09 Convergence criterion met
 Total energy in the final basis set = -112.69944772
  Term symbol:  1 (2) A1                                    R^2 =  3.20843e-13
  Term symbol:  1 (2) B1                                    R^2 =  1.42764e-12
  Term symbol:  1 (2) B2                                    R^2 =  1.71465e-12
  Term symbol:  2 (2) A1                                    R^2 =  4.94953e-13
  Term symbol:  1 (2) A2                                    R^2 =  4.50085e-13
  Term symbol:  2 (2) A2                                    R^2 =  5.25331e-13
  Term symbol:  3 (2) A1                                    R^2 =  1.04125e-08
  Term symbol:  2 (2) B2                                    R^2 =  1.45088e-10
  Term symbol:  2 (2) B1                                    R^2 =  1.16698e-11
  Term symbol:  4 (2) A1                                    R^2 =  1.18035e-12
  Term symbol:  3 (2) A2                                    R^2 =  5.41610e-13
  Term symbol:  5 (2) A1                                    R^2 =  8.60202e-07
  Term symbol:  4 (2) A2                                    R^2 =  1.17193e-12
  Term symbol:  3 (2) B2                                    R^2 =  8.93808e-07
  Term symbol:  3 (2) B1                                    R^2 =  5.55253e-07
  Term symbol:  4 (2) B1                                    R^2 =  3.29103e-07
  Term symbol:  4 (2) B2                                    R^2 =  2.93024e-07
  Term symbol:  5 (2) B2                                    R^2 =  4.92655e-07
  Term symbol:  5 (2) B1                                    R^2 =  7.15253e-07
  Term symbol:  5 (2) A2                                    R^2 =  3.00326e-07

             Orbital Energies (a.u.) and Symmetries
 --------------------------------------------------------------

 Alpha MOs, Restricted
 -- Occupied --
-20.684 -11.392  -1.564  -0.800  -0.646  -0.646  -0.557
  1 A1    2 A1    3 A1    4 A1    1 B1    1 B2    5 A1

 Beta MOs, Restricted
 -- Occupied --
-20.684 -11.392  -1.564  -0.800  -0.646  -0.646  -0.557
  1 A1    2 A1    3 A1    4 A1    1 B1    1 B2    5 A1

          Ground-State Mulliken Net Atomic Charges

     Atom                 Charge (a.u.)
  ----------------------------------------
      1 C                     0.331054
      2 O                    -0.331054
  ----------------------------------------
  Sum of atomic charges =     0.000000

                    Cartesian Multipole Moments
 -----------------------------------------------------------------
    Charge (ESU x 10^10)
                 0.0000
    Dipole Moment (Debye)
         X      -0.0000      Y       0.0000      Z      -0.4974
       Tot       0.4974
    Quadrupole Moments (Debye-Ang)
        XX     -10.1431     XY       0.0000     YY     -10.1431
        XZ      -0.0000     YZ       0.0000     ZZ     -13.0348

 Total job time:  10.27s(wall), 10.20s(cpu)
        *  Thank you very much for using Q-Chem.  Have a nice day.  *
