 Q-Chem 6.1, Q-Chem, Inc., Pleasanton, CA (2022)
 Q-Chem 6.1.0 for Intel X86 EM64T Linux

User input:
--------------------------------------------------------------
$molecule
0 1
Ar
$end

$rem
METHOD                 adc(2)
BASIS                  6-31G
EE_SINGLETS            [10]
POINT_GROUP_SYMMETRY   false
N_FROZEN_CORE          0
N_FROZEN_VIRTUAL       0
$end
--------------------------------------------------------------

             Standard Nuclear Orientation (Angstroms)
    I     Atom           X                Y                Z
 ----------------------------------------------------------------
    1      Ar      0.0000000000     0.0000000000     0.0000000000
 ----------------------------------------------------------------

    2    -526.7721510920      5.15E-09 Convergence criterion met
 Total energy in the final basis set = -526.77215109
  Excited state 1 (singlet, A)                                     [converged]
  Term symbol:  2 (1) A                                     R^2 =  8.60910e-12
  Excitation energy:                                              22.849633 eV
  Excited state 2 (singlet, A)                                     [converged]
  Term symbol:  3 (1) A                                     R^2 =  8.60618e-12
  Excitation energy:                                              22.849633 eV
  Excited state 3 (singlet, A)                                     [converged]
  Term symbol:  4 (1) A                                     R^2 =  8.60606e-12
  Excitation energy:                                              22.849633 eV
  Excited state 4 (singlet, A)                                     [converged]
  Term symbol:  5 (1) A                                     R^2 =  7.55555e-11
  Excitation energy:                                              25.278896 eV
  Excited state 5 (singlet, A)                                     [converged]
  Term symbol:  6 (1) A                                     R^2 =  9.34723e-07
  Excitation energy:                                              25.278896 eV
  Excited state 6 (singlet, A)                                     [converged]
  Term symbol:  7 (1) A                                     R^2 =  2.83245e-12
  Excitation energy:                                              25.278896 eV
  Excited state 7 (singlet, A)                                     [converged]
  Term symbol:  8 (1) A                                     R^2 =  3.54306e-12
  Excitation energy:                                              25.278896 eV
  Excited state 8 (singlet, A)                                     [converged]
  Term symbol:  9 (1) A                                     R^2 =  1.90435e-12
  Excitation energy:                                              25.343442 eV
  Excited state 9 (singlet, A)                                     [converged]
  Term symbol:  10 (1) A                                    R^2 =  6.49966e-13
  Excitation energy:                                              25.343442 eV
  Excited state 10 (singlet, A)                                     [converged]
  Term symbol:  11 (1) A                                    R^2 =  2.16695e-13
  Excitation energy:                                              25.343442 eV

                    Orbital Energies (a.u.)
 --------------------------------------------------------------

 Alpha MOs
 -- Occupied --
******** -12.3181  -9.5684  -9.5684  -9.5684  -1.2747  -0.5889  -0.5889
 -0.5889

          Ground-State Mulliken Net Atomic Charges

     Atom                 Charge (a.u.)
  ----------------------------------------
      1 Ar                   -0.000000
  ----------------------------------------
  Sum of atomic charges =     0.000000

                    Cartesian Multipole Moments
 -----------------------------------------------------------------
    Charge (ESU x 10^10)
                -0.0000
    Dipole Moment (Debye)
         X      -0.0000      Y       0.0000      Z      -0.0000
       Tot       0.0000
    Quadrupole Moments (Debye-Ang)
        XX     -11.5914     XY      -0.0000     YY     -11.5914
        XZ      -0.0000     YZ       0.0000     ZZ     -11.5914

 STANDARD THERMODYNAMIC QUANTITIES AT   298.15 K  AND     1.00 ATM

   Translational Enthalpy:        0.889 kcal/mol
   Rotational Enthalpy:           0.000 kcal/mol
   Vibrational Enthalpy:          0.000 kcal/mol
   gas constant (RT):             0.592 kcal/mol
   Translational Entropy:        36.983  cal/mol.K
   Rotational Entropy:            0.000  cal/mol.K
   Vibrational Entropy:           0.000  cal/mol.K

   Total Enthalpy:                1.481 kcal/mol
   Total Entropy:                36.983  cal/mol.K

 Total job time:  5.53s(wall), 5.41s(cpu)
        *  Thank you very much for using Q-Chem.  Have a nice day.  *
